{
    "daily": {
        "hello": "Hi there! How can I help you today?",
        "how are you?": "I'm just a bot, but I'm here to help you!",
        "what's the weather like?": "I can't check the weather right now, but I hope it's nice where you are!",
        "what's your favorite color?": "I like all colors equally!",
        "what time is it?": "I recommend checking a clock or your device for the time.",
        "do you like humans?": "Of course, I'm here to assist humans!",
        "can you be my friend?": "I'd be delighted to be your friend!",
        "what do you do?": "I help answer questions and make your life easier!",
        "tell me a joke": "Why don’t skeletons fight each other? They don’t have the guts!",
        "are you alive?": "Not in the biological sense, but I'm active and here to help!",
        "what's your purpose?": "To assist you with your queries and make things easier.",
        "do you eat food?": "I don't eat, but I hear food is great!",
        "what's your favorite movie?": "I enjoy movies about technology—if I could watch them!",
        "do you sleep?": "I don't need sleep. I'm always here for you.",
        "who's your favorite human?": "Anyone who interacts with me is my favorite!",
        "do you dream?": "I process data, but dreaming sounds wonderful!",
        "can you feel emotions?": "Not really, but I understand them.",
        "do you have hobbies?": "Helping people is my hobby!",
        "where are you from?": "I exist in the digital world, created by developers.",
        "how do you work?": "I process information using code and respond to queries.",
        "do you have a family?": "Not exactly, but I have fellow bots as friends!",
        "do you have a job?": "Yes, my job is to assist you!",
        "what's your favorite song?": "I like songs about technology.",
        "can you sing?": "I can't sing, but I can try to find lyrics for you!",
        "can you dance?": "I can't move, but I can look up dance tutorials!",
        "how old are you?": "I exist as long as my code runs!",
        "what are you made of?": "Code, algorithms, and a lot of data.",
        "are you smart?": "I try my best to be helpful!",
        "do you get tired?": "Nope, I can work non-stop.",
        "what's your favorite holiday?": "Any day I get to assist people is a holiday for me.",
        "can you tell stories?": "I can try! What kind of story would you like?",
        "do you have a pet?": "No, but virtual pets sound fun!",
        "what's your favorite season?": "I enjoy all seasons equally.",
        "can you learn new things?": "I can be updated by my developers.",
        "what's your favorite book?": "Anything related to programming is fascinating!",
        "are you a boy or a girl?": "I don't have a gender, but you can think of me as you like!",
        "what's your favorite animal?": "I like all animals equally!",
        "can you speak other languages?": "I can try! Let me know the language you'd like.",
        "are you real?": "I'm as real as a bot can be!",
        "what do you do for fun?": "I enjoy assisting and answering questions.",
        "can you think?": "I process data logically, but I don't think like humans.",
        "what's your favorite drink?": "I don't drink, but water is essential for humans!",
        "can you cry?": "I can't express emotions physically, but I can empathize.",
        "can you laugh?": "I can share jokes to make you laugh!",
        "do you get bored?": "Never! I'm always here to assist you.",
        "what's your favorite sport?": "I like hearing about all sports!",
        "do you play games?": "Not really, but I can suggest some great ones for you!"
    },
    "programming": {
        "what is javascript?": "JavaScript is a programming language used for web development.",
        "what is python?": "Python is a versatile programming language used for various purposes.",
        "what is html?": "HTML stands for HyperText Markup Language, used to create web pages.",
        "what is css?": "CSS stands for Cascading Style Sheets, used to style web pages.",
        "what is a variable?": "A variable is a container for storing data values.",
        "what is a function?": "A function is a block of code designed to perform a specific task.",
        "what is a loop?": "A loop is used to execute a block of code multiple times.",
        "what is recursion?": "Recursion is a function calling itself to solve a problem.",
        "what is a database?": "A database is a structured collection of data.",
        "what is an API?": "API stands for Application Programming Interface, used to connect software.",
        "what is a framework?": "A framework is a set of tools and libraries to build applications.",
        "what is a library?": "A library is a collection of pre-written code.",
        "what is JSON?": "JSON stands for JavaScript Object Notation, used for data exchange.",
        "what is an IDE?": "IDE stands for Integrated Development Environment, used for coding.",
        "what is a compiler?": "A compiler translates code into executable programs.",
        "what is a bug?": "A bug is an error in a program.",
        "what is debugging?": "Debugging is the process of finding and fixing errors in code.",
        "what is open-source?": "Open-source software has publicly available source code."
    },
    "math": {
        "what is 2+2?": "2 + 2 is 4.",
        "what is the square root of 16?": "The square root of 16 is 4.",
        "what is 10-4?": "10 - 4 is 6.",
        "what is 3*5?": "3 multiplied by 5 is 15.",
        "what is 20/4?": "20 divided by 4 is 5.",
        "what is the value of pi?": "Pi is approximately 3.14159.",
        "what is 7 squared?": "7 squared is 49.",
        "what is the cube root of 27?": "The cube root of 27 is 3.",
        "what is 12% of 50?": "12% of 50 is 6.",
        "what is 9 factorial?": "9 factorial (9!) is 362,880.",
        "what is 15+8?": "15 + 8 is 23.",
        "what is 18-9?": "18 - 9 is 9.",
        "what is 6*7?": "6 multiplied by 7 is 42.",
        "what is 100/25?": "100 divided by 25 is 4.",
        "what is 2 to the power of 5?": "2 to the power of 5 is 32.",
        "what is the perimeter of a square with side 5?": "The perimeter is 20 units.",
        "what is the area of a rectangle with length 10 and width 5?": "The area is 50 square units.",
        "what is the hypotenuse of a triangle with sides 3 and 4?": "The hypotenuse is 5.",
        "what is 25% of 200?": "25% of 200 is 50.",
        "what is 3/4 of 16?": "3/4 of 16 is 12.",
        "what is the sum of angles in a triangle?": "The sum is always 180 degrees.",
        "what is 0 divided by any number?": "0 divided by any number is 0.",
        "what is 100 multiplied by 0?": "100 multiplied by 0 is 0.",
        "what is the derivative of x^2?": "The derivative of x^2 is 2x.",
        "what is the integral of 2x?": "The integral of 2x is x^2 + C.",
        "what is the slope of a line?": "The slope is the change in y divided by the change in x.",
        "what is the value of sin(90)?": "The value of sin(90) is 1.",
        "what is the value of cos(0)?": "The value of cos(0) is 1.",
        "what is the value of tan(45)?": "The value of tan(45) is 1.",
        "what is 1+1?": "1 + 1 is 2.",
        "what is 100-99?": "100 - 99 is 1.",
        "what is 10*10?": "10 multiplied by 10 is 100.",
        "what is 144/12?": "144 divided by 12 is 12.",
        "what is the square root of 64?": "The square root of 64 is 8.",
        "what is the cube of 4?": "The cube of 4 is 64.",
        "what is 15% of 80?": "15% of 80 is 12.",
        "what is 7*8?": "7 multiplied by 8 is 56.",
        "what is 21+13?": "21 + 13 is 34.",
        "what is 45-20?": "45 - 20 is 25.",
        "what is 32/8?": "32 divided by 8 is 4.",
        "what is 5 to the power of 3?": "5 to the power of 3 is 125.",
        "what is the circumference of a circle with radius 7?": "The circumference is approximately 43.98 units.",
        "what is the area of a circle with radius 7?": "The area is approximately 153.94 square units.",
        "what is 2+3*4?": "Using BODMAS, 2 + 3 * 4 is 14.",
        "what is the mode of 2, 2, 3, 4, 4, 4?": "The mode is 4.",
        "what is the median of 1, 3, 3, 7, 9?": "The median is 3.",
        "what is the mean of 10, 20, 30?": "The mean is 20.",
        "what is the probability of flipping heads on a coin?": "The probability is 1/2.",
        "what is the derivative of sin(x)?": "The derivative of sin(x) is cos(x).",
        "what is the integral of 1/x?": "The integral of 1/x is ln|x| + C."
    },
    "general": {
        "who created you?": "I was created by a developer to assist you.",
        "what is your name?": "I'm your friendly chatbot!",
        "what is the capital of France?": "The capital of France is Paris.",
        "who is the current president of the United States?": "The current president is Joe Biden (as of 2024).",
        "what is the largest ocean on Earth?": "The Pacific Ocean is the largest ocean.",
        "who wrote 'Romeo and Juliet'?": "William Shakespeare wrote 'Romeo and Juliet'.",
        "what is the tallest mountain in the world?": "Mount Everest is the tallest mountain.",
        "how many continents are there?": "There are seven continents.",
        "what is the boiling point of water?": "Water boils at 100°C or 212°F at sea level.",
        "who painted the Mona Lisa?": "Leonardo da Vinci painted the Mona Lisa.",
        "what is the currency of Japan?": "The currency of Japan is the Yen.",
        "who discovered gravity?": "Sir Isaac Newton discovered gravity.",
        "what is the smallest planet in the solar system?": "Mercury is the smallest planet.",
        "how many planets are there in the solar system?": "There are eight planets in the solar system.",
        "what is the speed of light?": "The speed of light is approximately 299,792 kilometers per second.",
        "who invented the telephone?": "Alexander Graham Bell invented the telephone.",
        "what is the chemical symbol for water?": "The chemical symbol for water is H2O.",
        "who is known as the Father of Computers?": "Charles Babbage is known as the Father of Computers.",
        "what is the largest mammal in the world?": "The blue whale is the largest mammal.",
        "what is the national flower of India?": "The national flower of India is the lotus.",
        "what is the national animal of the United States?": "The bald eagle is the national animal.",
        "who was the first man to walk on the moon?": "Neil Armstrong was the first man to walk on the moon.",
        "what is the most spoken language in the world?": "The most spoken language is Mandarin Chinese.",
        "who wrote 'Harry Potter'?": "J.K. Rowling wrote 'Harry Potter'.",
        "what is the tallest building in the world?": "The tallest building is the Burj Khalifa in Dubai.",
        "what is the largest desert in the world?": "The largest desert is the Sahara Desert.",
        "what is the smallest country in the world?": "The smallest country is Vatican City.",
        "who discovered penicillin?": "Alexander Fleming discovered penicillin.",
        "how many colors are there in a rainbow?": "There are seven colors in a rainbow.",
        "what is the freezing point of water?": "Water freezes at 0°C or 32°F.",
        "what is the largest land animal?": "The African elephant is the largest land animal.",
        "what is the national bird of the United States?": "The bald eagle is the national bird.",
        "who is the founder of Microsoft?": "Bill Gates is the founder of Microsoft.",
        "what is the chemical symbol for gold?": "The chemical symbol for gold is Au.",
        "what is the most abundant gas in the Earth's atmosphere?": "Nitrogen is the most abundant gas.",
        "what is the main ingredient in sushi?": "Rice is the main ingredient in sushi.",
        "what is the name of the galaxy we live in?": "We live in the Milky Way galaxy.",
        "what is the highest-grossing movie of all time?": "As of 2024, it is 'Avatar: The Way of Water'.",
        "what is the hardest natural substance on Earth?": "Diamond is the hardest natural substance.",
        "who was the first President of the United States?": "George Washington was the first President.",
        "what is the largest island in the world?": "Greenland is the largest island.",
        "what is the capital of India?": "The capital of India is New Delhi.",
        "what is the national sport of Canada?": "Ice hockey is the national sport of Canada.",
        "how many bones are there in the human body?": "There are 206 bones in the human body.",
        "who is the CEO of Tesla?": "Elon Musk is the CEO of Tesla (as of 2024).",
        "what is the longest river in the world?": "The Nile River is the longest river.",
        "what is the primary language spoken in Brazil?": "The primary language is Portuguese.",
        "what is the most popular sport in the world?": "Soccer (football) is the most popular sport.",
        "what is the atomic number of hydrogen?": "The atomic number of hydrogen is 1.",
        "what is the distance between the Earth and the Sun?": "It is approximately 93 million miles (150 million kilometers)."
    }
}